     769
 i =     1000, time =      500.000, E =     -4408.8206579363
  H        14.3782724092        2.4393758227        1.6636818701
  H        13.1544572004        2.3507355377        0.5995220274
  O        14.0849585716        2.7858478495        0.7803262729
  H         4.6113961085        1.1508181051        6.9816301482
  H         5.9346165581        1.9405489077        6.9966610976
  O         5.5053135450        1.1626110750        7.3885658158
  H         3.0616075451        0.4139396043       21.2047161902
  H         2.7688253236        1.9701703339        1.4595419000
  O         2.6373162397        1.0942134037        1.9660053848
  H         5.4550090006       13.6906945537       13.0035980280
  H         5.7936904071       12.8425938593       11.6323979607
  O         6.0274640823       13.6553709042       12.2174521162
  H         3.4251659455       17.0057351778        1.5513515676
  H         4.8942513735       17.1259634497        2.1622338495
  O         4.3367648638       16.6225668250        1.5375062715
  H        11.9246645104        0.6498929914        0.7399209753
  H        11.4152668819        1.8578020065       -0.2033771047
  O        11.5098554766        1.5889348102        0.7160075165
  H         4.9091308864        1.1382413635       13.8170975434
  H         3.7049072581        1.8662901632       14.7185638629
  O         4.0026064837        0.9946522193       14.1921929966
  H         0.1317131275        3.9320472657       17.7432694177
  H        18.7146658176        4.8029198340       17.1090270124
  O        -0.0340814497        4.8093291924       17.3902393552
  H        12.7155407026       18.2504486326        7.2066318017
  H        14.2351425325       18.0317384005        7.1805673504
  O        13.5059469337       18.5050813913        6.6493226641
  H        13.9102271250       15.6715258590       13.1922292794
  H        14.4232977730       17.0294688994       13.6272915821
  O        14.7825206139       16.1698842931       13.2610082458
  H         4.9641594708        5.4553289653       16.4783790496
  H         4.4989178472        4.3207213444       15.5682660598
  O         5.2461650867        4.8615143089       15.6786593007
  H         8.1305258682       12.0410985440       16.9682361367
  H         9.2568465581       13.0403678038       17.2248788347
  O         8.8974010920       12.4859612417       16.5209249784
  H         6.7641446504        6.5427280185        2.1421611340
  H         8.0950068938        6.4567479979        1.4455298899
  O         7.3701078303        7.0930418831        1.6925683316
  H        18.7358176726       10.9266843206        7.1459112524
  H        18.6266079462       11.8316569421        5.9949282638
  O        18.7765705129       11.8975572152        6.9661692922
  H         6.4081636252       12.2374756503        3.5446600926
  H         7.0406268336       13.8111833074        3.3050948421
  O         6.2322646384       13.2051210437        3.1701202354
  H        16.4475256978       17.9252137246       11.1533506600
  H        16.2155489862       -0.3201684453       10.3001003419
  O        16.0854600891       18.8896327525       11.1270950642
  H        12.1857593531       17.1395805327       10.3432967638
  H        10.7077489734       16.3375530295       10.2557888406
  O        11.7022382768       16.3164398598       10.1167646626
  H        17.6595037453       -0.5717590372       18.6998505583
  H        17.6133669573       -0.7519243247       17.0049758463
  O        18.1976590966       -0.6476372045       17.8264698402
  H         2.8357025053       12.2138216164        9.8068510547
  H         2.9427224552       11.3399138808       11.2982913649
  O         3.1204712310       11.3556442089       10.2803657339
  H         2.4742311816       13.3172544203       16.3741007342
  H        14.9684367873       12.3962890373       11.4154297144
  O         2.4381892767       12.9899551783       15.4506513930
  H         6.9044353621        1.5174908043       17.1656208339
  H         5.7403760198        2.5621702594       16.5876429974
  O         5.9682350219        1.6350415719       16.9216640731
  H        11.7509485305       19.3681859621        2.9176190278
  H        11.2183714621        0.3737637694        4.3909679930
  O        11.1657355520       19.2581568011        3.6479290205
  H         2.5323630970       13.5483513185        3.0250020854
  H         1.0914905030       13.5045385006        3.1307955413
  O         1.7804277003       13.0249985946        2.6434386264
  H        11.7659728006       13.7180081503       15.1015193317
  H        11.8438884813       12.5376481883       13.9762774366
  O        11.9769141880       12.6634014987       14.9673587503
  H        13.2669924192        1.1743945935        8.7653426924
  H        13.7774715574        0.5597513840        7.4194931342
  O        13.8989226090        1.3566601257        8.0128965750
  H        15.4633432013       13.3399234200        0.0886479918
  H        16.2573813535       12.9038861421       18.4259597610
  O        15.4368741660       13.3476060689       18.8126042411
  H         8.4510181768        4.7166431349        3.9949549593
  H         7.7603125676        3.7941271472        2.8607668261
  O         8.5861927591        4.2388981001        3.1371725561
  H         2.7486656519        6.7776011405        7.1144050258
  H         3.4378513565        6.1545168950        8.3208797576
  O         3.5547268991        6.9396102866        7.6940313900
  H         6.3314491339       10.5505959098       11.0697804071
  H         4.9290442946       11.1444770313       10.4966533241
  O         5.8764154366       11.4275382026       10.7358735738
  H        11.1352539129       15.7278339121        0.3984055129
  H        12.3632565461       15.0559082156       -0.0807011860
  O        12.0888846614       15.6988412249        0.5272507149
  H         6.5262422012        7.6941321596        8.7710948687
  H         6.6928593464        7.8455743946       10.3482360967
  O         6.8665938438        7.2093983890        9.5488488674
  H         4.7144597156       12.3054121604       19.1838778165
  H         3.7813443874       10.9969218710       18.9346201805
  O         4.2405597662       11.7854647312       18.4673474504
  H        12.2862074439       14.5964325251       17.0777453477
  H        14.6986622984        8.0926435516       14.5318282852
  O        12.0226153210       15.0887591657       16.2992028644
  H        16.9794156687        4.9373781296        5.8787264394
  H        17.6109972893        3.7225924945        4.7981067025
  O        17.6450850576        4.5872254468        5.1665434594
  H        16.1105164684        2.7752143335       11.9176406789
  H        17.5956899120        2.4796445359       11.4554318881
  O        16.8438436868        3.0392825760       11.1916574536
  H         1.3566476978       17.6640082134       17.2956421718
  H         5.3789613323        9.4491545592       14.2151178973
  O         2.1450656459       18.0897252808       16.9311019189
  H         7.5815725734       14.6761413805       11.7884529607
  H         8.8157443570       14.6998890769       10.7411526852
  O         8.4374053470       15.1506414431       11.5490285234
  H         3.8246290889        6.4019785825       17.8834980330
  H         5.1702510952        7.3077757533       17.8652170523
  O         4.8081434488        6.3959795328       17.8947052412
  H        12.1430423382       12.0747033614       11.3629646234
  H        11.6211382239       11.0270876986       12.3310074649
  O        11.4353023835       11.9353586344       12.0155522265
  H        14.3432692235       12.4964135924        5.2911263710
  H        12.9975826528       11.9259788741        4.6623964551
  O        13.8721351587       11.6976828431        4.9779018314
  H         0.2847938224        4.1386375914       14.1315340224
  H        -0.9194289707        3.0272518775       14.5904593426
  O        19.2240043904        3.5745299840       13.8147147190
  H         2.1644626239        7.5998673209       16.6363188411
  H         1.4254242419        6.4456533701       17.3421197947
  O         2.0672876541        6.6117849470       16.6990904976
  H         0.8772975100        9.3091576989        4.4129275610
  H        19.5041695454        8.2174097925        3.8196859099
  O         0.2610212142        8.5395196584        4.6121358772
  H         7.2614545882        4.6201973981       15.7362411994
  H        11.1230732954       15.4589869506       16.7067192276
  O         7.9993333043        4.3559048975       16.3658332845
  H         4.3959275615       15.6572985290        0.1207105684
  H         3.6076748741       14.7141431984       18.7760304093
  O         4.4609619660       15.1762353367       19.0398509194
  H        10.8830181700       14.0683499279        7.7442647848
  H        12.0568898979       13.7683458003        6.7395230114
  O        11.7333517918       13.5192503010        7.6353468415
  H        13.9746513949        0.3625952732       14.4982833124
  H        14.9213167975        0.9846323717       15.6518703214
  O        14.3237560795        1.1595937670       14.9020105779
  H        19.3849468898        1.1698219427       12.1120443712
  H        19.3114100270        2.7191981513       12.4966292479
  O        19.3642110892        2.0274130847       11.7274474974
  H        19.0441584574        4.5934066479        6.1504889180
  H        -0.2611003935        4.4546414747        7.6532606153
  O         0.0868761233        4.4815648165        6.7638253856
  H        14.9794138323        2.2631240846       13.8750102783
  H        15.9970775213        3.5508651038       14.0270549130
  O        15.3004039557        3.1752582579       13.4032477414
  H        14.6362672689       10.2216197872        1.9790298741
  H        13.6345778472        9.2558098301        1.3412067344
  O        14.3081094889        9.9025551177        1.1073762333
  H         5.6665946686       16.6548168203       16.4651555501
  H         4.9099046679       16.3913070284       17.8343606335
  O         4.9678169666       17.0290240563       17.0284425399
  H         5.0543236597       16.2938556679        5.8004492695
  H        20.0603157265        8.3959092452       12.9216956695
  O         4.5244957012       15.5226513762        5.9866939277
  H         9.7511315090        2.2474200564       16.9572670272
  H         9.1419804245        0.8312622813       16.6854112958
  O         8.8684129593        1.8161851801       16.7474952332
  H        18.5673035390       17.0832566112        6.7748402517
  H        18.3250070327       18.5907475390        6.3235442906
  O        18.1858313539       18.0221206535        7.0763603749
  H        14.5196232231       12.3773572768       13.7936116139
  H        13.5426970444       12.4408165483       15.1257351115
  O        14.5052509823       12.5269620617       14.8384904975
  H         7.7624573829       13.4732829598        6.4439829947
  H         8.2629893447       14.5624225760        5.3890523887
  O         8.5477901314       13.8581601593        6.0038993967
  H         4.0434710558       15.2162879654        2.7298738721
  H         4.6244967579       13.8762938660        3.1333461069
  O         3.8927988621       14.5292200771        3.4395368757
  H         2.0399796068       11.4575149866        3.6721624148
  H         2.6207460301       10.7891075350        4.9094019539
  O         2.0993896883       10.5111117429        4.0597284948
  H        16.0627906369        5.0566174211       17.6421228029
  H        16.4486587732        3.4923271749       17.8502456605
  O        16.6714370942        4.3280361463       17.4170898872
  H        18.6801814756       16.4646530585        1.9341284334
  H        19.0679890719       17.0477121033        3.3913040649
  O        18.4328330604       16.3695966877        2.8921725480
  H        13.7275593263       18.4212244133        3.3118159664
  H        14.0516349251       18.4417090881        4.8254693707
  O        14.3654700916       18.8033808754        3.9714550160
  H         2.3253571549        0.8833437118       10.8094148695
  H         3.3294506522        1.4825746502       11.9837612985
  O         3.2900959114        1.0746472234       11.0344375435
  H        11.4356850961       11.7342717566        8.1428105888
  H        11.3954713120       10.5060060011        9.1525040533
  O        11.6762119029       10.7604590411        8.2578099277
  H         8.3309703410        0.9807035577        5.5579504526
  H         8.8022110837        3.6680723547       12.4985641307
  O         7.5865177158        0.8959862931        4.8509401212
  H         0.7060518393        9.1031212792       18.2403766360
  H        19.0854977677        8.5635392160       18.8716629758
  O        19.9662011731        9.0462787132       19.0558831211
  H        13.6450886104        7.0418789143       11.9002150346
  H        14.2039736405        8.2146886757       11.0740634875
  O        13.3109149985        7.8370870088       11.3401321786
  H         4.0783707153       18.1839719934       12.1013145933
  H         4.2516954294       19.4388201501       10.9987884792
  O         4.3883140024       18.3245658436       11.1398852775
  H        13.4225744858       18.6051297408       12.7758595076
  H        12.4984943832       18.2642084894       14.0792440989
  O        13.4073499232       18.5512480624       13.7684186536
  H         9.1892121860       16.0804433654       18.1513994672
  H         9.5896391761       17.2491481129       17.2703633426
  O         9.2360733796       16.3158123272       17.1972259636
  H         7.0484055066       10.8616852167        7.2203503612
  H         6.8218055668        9.3915436150        6.8556467802
  O         7.2576216133       10.1812525628        6.5140426361
  H        15.9189943948       13.1833027482        2.0876754025
  H        14.2258750369       13.5393800896        2.1532470929
  O        15.1542938878       13.7357975615        1.7966354687
  H        19.4190568290       15.7253500941       12.2822560174
  H        19.4113977298       17.2707490910       12.7001342315
  O        18.9988230533       16.3514050794       12.9658877022
  H        10.2278593118       18.7573031972        8.5060899949
  H         9.2204808149       19.0897564832        9.5941844284
  O         9.8925764685       19.5934623183        9.0070931286
  H        14.0812877929        5.8715517161        1.6067090751
  H        14.0231896865        4.5154941483        0.7650398154
  O        14.2509100680        5.4687709058        0.7873802992
  H        16.5359052902       18.8025833532        0.6791631360
  H        17.8293898778       -0.2455438358        1.2727588475
  O        17.1581164885       -0.1053335550       20.2870633243
  H        16.5247228380        9.2152942931       11.4500909864
  H        15.6872932743        8.9261082671       12.6322278655
  O        15.6118250970        9.2742348661       11.7344003127
  H         3.5732807683        9.3860441855        0.6829883243
  H         2.3316448798        9.4180195859       -0.2332921126
  O         3.2778304385        9.5008458081       -0.2417178568
  H        14.5047032626        5.7842352523       18.9087217718
  H        14.8557035048        7.0140361279       17.7941793679
  O        14.7231531333        6.0224466366       17.9624026791
  H         7.1050488483        1.6062450957        5.2071455666
  H        13.2522721798       18.9731214163       17.2687731603
  O        12.7379826465       19.7881436845       17.3337509548
  H        11.0985875990       11.2446996067       15.8506662587
  H        11.2655231683       10.5194400140       17.3858685921
  O        11.0066154884       10.3926450972       16.4637738971
  H        14.2385479870        2.2548446076        4.0675610446
  H        14.6305363258        0.8151435105        3.6938167279
  O        14.7407172145        1.7501886436        3.4152102190
  H         3.1956692180        0.2335919038        5.1908121733
  H         3.0262143388       20.4035371260        3.6216733349
  O         3.6143781954        0.3350104317        4.3058782688
  H        15.4131707660       15.2445595505       14.9513926304
  H        15.5835844048       13.7601345865       15.4395646903
  O        16.0374053540       14.6563294652       15.4261728994
  H         5.7753473328       13.7219048915        0.3867773099
  H         5.9868688536       12.9957926875        1.5621706266
  O         5.9984458348       12.8446288004        0.5975758343
  H        17.1582340779        8.2846657304       18.4727401423
  H        18.0138607448        7.6795988054       17.3304858025
  O        17.9966973754        7.6021633318       18.3199376769
  H         7.7137132927        3.7202309665       18.2613355149
  H         7.7294747775        2.8457685149       19.4808429763
  O         7.8094718876        3.7982765531       19.1832066358
  H         0.6923913293        7.6445491618       10.7554862342
  H         1.6351523976        6.7665076691       11.7189226449
  O         0.9803394712        7.5435135293       11.7113452301
  H         8.8425294522        4.2291729886        8.4394006506
  H        10.2966886099        4.5014195164        7.9494984141
  O         9.3436660943        4.3829852247        7.6452599263
  H        13.0040653653        7.6670827038        8.4321200376
  H        13.0708611649        6.8853451155        9.8793576117
  O        13.0579013051        6.7882871930        8.8784766401
  H         7.6291234427       10.0139005572        2.7729392796
  H         7.7242595685        8.6550642565        1.9172780701
  O         8.2904765055        9.3950755871        2.2514106743
  H        19.3774732826        0.6860062781        5.3534991315
  H        18.3146418012        0.3001003534        4.3767427593
  O        18.9397616623       -0.1302265430        5.0018304828
  H        16.8541231659        7.8362435930        3.7076399908
  H        15.3796943421        7.5448678220        3.8512469393
  O        16.0321981330        8.1847126007        4.1775953239
  H        11.8224413622        7.8153724864        1.7120676876
  H        11.5964062364        8.5437177418        3.0969848589
  O        12.2993173158        8.3910759733        2.4487528493
  H         1.1385198067       13.7423311224        0.9251428947
  H        -0.0396381550       12.8888959460       20.0413465871
  O         0.5422907593       13.7033136190        0.1352334986
  H        15.4096882984       14.2032426272        6.2636583336
  H        16.6863841795       13.4051280544        6.1266425299
  O        15.7404938855       13.2331647608        6.4002281491
  H        10.3096789385       17.2553747732       13.8472858853
  H        10.3071153038       18.8245488462       13.5314924989
  O        10.6283096999       18.1029453095       14.1582036046
  H        11.2469569633       10.4557685816        2.4717150521
  H        10.7301111804       11.4300954662        3.5748435235
  O        11.1652606264       11.4055127801        2.7088650109
  H         7.0429422390       17.9668839480        5.6940550233
  H         6.3755577968       17.9691893952        4.2781960242
  O         6.5649324081       17.4016371449        5.0467541635
  H        14.3627570680       18.5314852640       11.0170376337
  H        13.1266594298       -0.2855322992       10.7354976396
  O        13.3986378323       18.5022887493       10.8833187515
  H         4.4613005187       15.3862283237       15.1954204589
  H         5.7417141411       14.5346386586       15.4409455203
  O         4.8605598736       14.4763665983       15.1053712364
  H         5.1781749626        6.0323560731       14.0819857100
  H         5.7686201554        6.4586873755       12.6770373763
  O         4.9130570537        6.4940727830       13.2579096216
  H         9.1539173514        9.6665945893        0.8827709820
  H        18.7756486193        0.9620587462       17.7644602345
  O        19.1811768801        1.9169813169       17.8381542403
  H        15.9643312896        0.2221846299       13.3687579702
  H        17.3271226141       19.3935139236       13.3465800773
  O        16.8385202342        0.4203644897       13.7244063338
  H        15.4163127555        1.2820983654        8.7660255979
  H        16.3202048124        1.8492136837        9.8862404744
  O        16.2031994767        1.0905933450        9.3168779859
  H         1.1654389312       17.6582800719        0.6709536750
  H         1.3768255090       17.5733988050        2.2831431789
  O         1.7842458611       17.2953912703        1.3875374023
  H         3.2311798013        6.6393935313        1.3633645638
  H         3.6595915861        6.1552035360        2.8219370607
  O         3.9045305356        6.7696753723        2.0905870884
  H        11.2875718617        3.7663400746       17.9907117580
  H        12.1060025479        2.7154589352       17.1722858702
  O        11.3783161907        2.8055019905       17.9269629320
  H         2.5053521275        2.6309610295       16.5890789679
  H         1.8975494255        3.7079147108       15.5927224350
  O         2.6754512963        3.1434029263       15.8014318942
  H         6.1732280020        2.2198148587        1.7214395857
  H         5.9748022872        3.7815102104        1.4604501829
  O         6.2284117733        3.1808181738        2.1674800534
  H        15.8554644273        7.2061751102        7.0614146887
  H         3.2691222437        3.9505552366        3.7249583169
  O         2.6482941155        4.7036676822        3.6164139735
  H        13.8526103695       18.5750888625        1.0173776991
  H        12.6418088750       17.6741477150        1.1902224167
  O        12.9155372606       18.5816655951        1.4076695908
  H        17.5093767854       14.8717902124       15.0773147666
  H        18.6249549173       15.8547310331       14.4399451551
  O        18.5031413338       15.2843593747       15.3163391441
  H        19.5341182284       13.6498580589       11.4336078719
  H        -0.2395227366       14.5863956123       10.1316876094
  O         0.1816287050       14.4402238426       11.0708870799
  H        11.2157693971        0.5863626699        9.8117431586
  H        11.8649922765        1.9474114529       10.6874602614
  O        12.0597836460        1.0048045358       10.1960180687
  H        11.1183641798       19.1626522019       16.8839842618
  H        10.2484039955       18.5407760608       15.7569919358
  O        10.1725894011       -0.9341105766       16.6738803059
  H         1.1773910465        5.9452120648        0.4306127710
  H         1.0812436747        7.4368123775       -0.0727748460
  O         1.7505047512        6.7033845330        0.0610880204
  H         9.3531529101       15.4767615542       12.9228612833
  H         9.8058811935       14.8074919431       14.3382028354
  O        10.0938529967       15.4766111374       13.6166644048
  H         9.3603513441       12.5198946112       14.2758004437
  H         9.6856934469       12.3317785558       12.8321185549
  O         8.9213855895       12.2384166690       13.4336229316
  H         4.2892537664        8.4725150130       13.5985471071
  H        13.3685402792        0.8222600742       17.5273310526
  O         4.7045286940        9.3368260526       13.5132018029
  H        18.4378123545       10.1838794693        9.7810417318
  H        17.1389403478       11.1980507183        9.5948217116
  O        17.8799441374       10.9185195034       10.1967358154
  H        18.6855388472       19.4484123492        8.3184864844
  H        17.6915471633        0.8945522298        8.6846862395
  O        18.6990414255        0.7077454752        8.6245675788
  H         8.3138913018        0.4086882508        3.1868837771
  H         9.7490328469       19.5169070038        2.9275135414
  O         8.9371217215        0.0502163395        2.4904215447
  H        18.5536762935       11.3881403336       11.9671672613
  H        17.4678368296       11.8036744527       13.1298888876
  O        18.4115397455       11.3485011300       13.0012836741
  H         4.1600306250        2.2749523102       10.1091340399
  H         5.2455939341        1.9134557011        8.9976202823
  O         4.8018380605        2.6585400738        9.4913645748
  H         9.1995338167       15.9796560060        3.9966482794
  H         7.7530376075       16.4602726887        4.3323402065
  O         8.2755490998       15.7468919030        3.8585811470
  H         5.3435995535        5.3220524607       19.2642375838
  H         4.9544094824        5.8664074512        1.0486815906
  O         5.3087160478        5.0486526842        0.5094514958
  H         3.5831535161       18.2126591960        9.4437694025
  H         2.5974257378       17.6275943007        8.2247482326
  O         2.8347224625       18.4234960126        8.9013541923
  H        10.5129807967        6.1619798847       16.4399937652
  H         9.0766828845        5.6376542849       16.1559604591
  O         9.7359907957        6.3152442545       15.9225877705
  H        13.4568931148       16.6863427021       16.5774689031
  H        14.6017061816       17.0313094759       17.7022784842
  O        14.0118049681       17.4001514626       16.9979163482
  H        12.7685926096        6.0133531737       17.6819230476
  H        11.5659597551        6.2872195819       18.5877562490
  O        11.8811732279        5.7018426760       17.8793976999
  H         0.0198697746        3.2889387753        9.9447333028
  H        18.9868218207        4.5158797930        9.6995440534
  O         0.0887413131        4.0913442095        9.4948407147
  H         1.5746643562        5.8281883756       15.3883897145
  H         2.0242707163        5.4508029038       13.7625903532
  O         1.4310463080        5.2892967561       14.5166629762
  H        18.9029742090       17.8006008629       17.5697348390
  H        18.9352171800       16.4005128806       16.7576415394
  O        19.4598373235       16.9083693478       17.4177732011
  H         9.4316038588        5.0181358023        1.7518223996
  H         8.9232293622        4.5419606642        0.2832127855
  O         9.4690809310        5.2729478357        0.7910008877
  H        18.3152457854       11.3592862166       19.1798783806
  H        19.5780596483       10.6428299760       19.7159131204
  O        18.9101500997       11.4039258018       19.9803674173
  H         3.0232683610        5.0040376607       11.2937539538
  H         3.4709339644        6.1285820438       12.3813654707
  O         2.6852375450        5.6022282708       12.0526536057
  H        16.6485867634       17.4610904600        7.5424924189
  H        15.7773452664       16.5094839975        8.3836843466
  O        15.7052640563       17.2216427090        7.7309134449
  H        13.3874526194        7.4391467907        3.0205172339
  H        13.8208142522        5.9122523810        3.7491750355
  O        14.1140751620        6.7320585579        3.3008178285
  H        12.3440782324        8.8438115081       12.1731495803
  H        10.9234994073        8.9393695050       12.9377238118
  O        11.8871579204        9.2862192171       12.9965355439
  H         5.7183488180       11.3366151443       17.8450936647
  H         6.6280979126       10.1607334933       17.9863314869
  O         6.6484985053       11.1174973046       17.8896573039
  H         1.7670888388       18.9081211657       15.3179080666
  H         2.7315274627       19.6891792186       14.2108371621
  O         1.9647424491       19.0095559113       14.3673838351
  H         1.2099347886        9.2028266875       15.5361165381
  H         1.8445824348       10.2594665238       16.3338120082
  O         1.5958313518        9.2996421063       16.4658816013
  H        18.1224019483       11.8428123682        2.0282020419
  H        16.8608307452       11.6619676729        3.0592544037
  O        17.5352273885       12.3333576959        2.6956878616
  H        15.1587739693       16.4727535616        6.2458991543
  H        15.2950454579       15.9872506125        4.6734391704
  O        14.9740814163       15.7007944581        5.5719353285
  H        11.3920634062        2.2998688994        4.2718302519
  H        11.0124115692        1.9052605931        5.7478283051
  O        11.6149786556        1.6636261532        5.0165328856
  H         7.5769267695        7.7325970979       17.9916082463
  H         6.9942550669        7.7899915209       19.4620852503
  O         6.9727700103        8.1769196202       18.5614993423
  H        12.7027995466        4.0666093629        3.8505762702
  H        13.5822369921        4.0445301279        5.1506155012
  O        13.5948632948        4.3776981813        4.1762726686
  H         1.2943336775        7.2179733901        5.2450415694
  H         1.0246213457        5.9479277342        6.0613787798
  O         1.8311950853        6.5291812240        5.8148314907
  H         7.9162511124       13.9505729810       15.8306707584
  H         8.2015510739       15.5338008900       16.1517034121
  O         7.7795361482       14.8899637656       15.5370848309
  H        11.1837941499        2.7455205808        2.1172024201
  H        10.2305917340        3.5765039876        2.9803851343
  O        11.1615503872        3.3329783618        2.8508167967